<?xml version="1.0"?>
<VTKFile type="PolyData" version="0.1" byte_order="LittleEndian" header_type="UInt32" compressor="vtkZLibDataCompressor">
  <PolyData>
    <Piece NumberOfPoints="18" NumberOfVerts="0" NumberOfLines="1" NumberOfStrips="0" NumberOfPolys="0">
      <PointData Scalars="spokeLength" Vectors="spokeDirection">
        <DataArray type="Float64" Name="spokeDirection" NumberOfComponents="3" format="ascii" RangeMin="1" RangeMax="1">
          -0.8555697108648285 0.20260410065905013 -0.4763948448994925 -0.9072614553652032 -0.25404449056790374 -0.3351686865157719
          -0.9996941938677859 0.024715440253330112 0.000815941248990625 -0.9930355248855168 -0.08689855692558258 -0.07955555995401963
          -0.9969254648191309 -0.019166538507395525 0.07597539994501058 -0.8717110459346387 0.2850557103626074 0.3985763344520187
          -0.7791489769409505 -0.31830275619218484 0.5400094694839422 -0.9631992849047881 -0.2115743947553282 -0.1657812204166121
          -0.16769105916113006 -0.5620308647411111 -0.8099388963099484 0.7542091183813717 -0.3676374166983012 -0.5440692378675656
          0.8974056038137467 -0.1464697858214623 -0.41618479559577837 0.9505748120465944 -0.0033050362952808023 -0.3104780240816871
          0.9940699536606051 0.10247994833997985 -0.03637014458917376 0.9573283436875716 0.2868720283914608 -0.035026871098912594
          0.9147445453307907 0.37776255126036634 -0.14331040315630988 0.7398566658188239 0.560466810625642 0.3721411939446827
          0.26964482987110433 0.6088274522444921 0.7460702373887219 -0.11395571654945037 0.01763930443288421 0.9933292251840904
          <InformationKey name="L2_NORM_RANGE" location="vtkDataArray" length="2">
            <Value index="0">
              1
            </Value>
            <Value index="1">
              1
            </Value>
          </InformationKey>
        </DataArray>
        <DataArray type="Float64" Name="spokeLength" format="ascii" RangeMin="0.04049142971809571" RangeMax="0.1289479472000453">
          0.04049142971809571 0.1289479472000453 0.12299421042227346 0.12310866287248262 0.11085725673192909 0.08662357903837033
          0.06729331564540399 0.058112105051957866 0.08807600080320623 0.11609863237466463 0.10035091511751718 0.10763621859453056
          0.0967597751541885 0.06997955855625554 0.06918393081428828 0.0869356067567937 0.07591651591678257 0.07394444680696013
        </DataArray>
      </PointData>
      <CellData>
      </CellData>
      <Points>
        <DataArray type="Float32" Name="Points" NumberOfComponents="3" format="ascii" RangeMin="0.2663190457830816" RangeMax="1.4489129473239073">
          0.07119240611791611 0.9188970327377319 0.8343714475631714 0.11496832966804504 0.8213067054748535 0.7601714134216309
          0.12242002785205841 0.759186863899231 0.6978473663330078 0.13347859680652618 0.6357963681221008 0.5848076939582825
          0.1216956377029419 0.536765456199646 0.4958498775959015 0.13239678740501404 0.43465057015419006 0.4686979055404663
          0.0811668410897255 0.2063659429550171 0.47032588720321655 0.05688077211380005 0.15204650163650513 0.25092533230781555
          0.25950294733047485 0.038102272897958755 0.046176522970199585 0.512286901473999 0.1313176453113556 0.1469331830739975
          0.6308300495147705 0.23018001019954681 0.2675434947013855 0.6941757202148438 0.39589908719062805 0.39038777351379395
          0.7061293721199036 0.5830093622207642 0.5195370316505432 0.6995598673820496 0.7511497139930725 0.6049870848655701
          0.6469632387161255 0.8603944778442383 0.6869006156921387 0.547488272190094 0.9610822200775146 0.8485114574432373
          0.3862341046333313 0.9837654829025269 0.9911495447158813 0.222334086894989 0.8837366700172424 1.0638635158538818
          <InformationKey name="L2_NORM_RANGE" location="vtkDataArray" length="2">
            <Value index="0">
              0.26631904578
            </Value>
            <Value index="1">
              1.4489129473
            </Value>
          </InformationKey>
        </DataArray>
      </Points>
      <Verts>
        <DataArray type="Int64" Name="connectivity" format="ascii" RangeMin="1e+299" RangeMax="-1e+299">
        </DataArray>
        <DataArray type="Int64" Name="offsets" format="ascii" RangeMin="1e+299" RangeMax="-1e+299">
        </DataArray>
      </Verts>
      <Lines>
        <DataArray type="Int64" Name="connectivity" format="ascii" RangeMin="0" RangeMax="17">
          0 1 2 3 4 5
          6 7 8 9 10 11
          12 13 14 15 16 17
          0
        </DataArray>
        <DataArray type="Int64" Name="offsets" format="ascii" RangeMin="19" RangeMax="19">
          19
        </DataArray>
      </Lines>
      <Strips>
        <DataArray type="Int64" Name="connectivity" format="ascii" RangeMin="0" RangeMax="17">
        </DataArray>
        <DataArray type="Int64" Name="offsets" format="ascii" RangeMin="19" RangeMax="19">
        </DataArray>
      </Strips>
      <Polys>
        <DataArray type="Int64" Name="connectivity" format="ascii" RangeMin="0" RangeMax="17">
        </DataArray>
        <DataArray type="Int64" Name="offsets" format="ascii" RangeMin="19" RangeMax="19">
        </DataArray>
      </Polys>
    </Piece>
  </PolyData>
</VTKFile>
