<?xml version="1.0"?>
<VTKFile type="PolyData" version="0.1" byte_order="LittleEndian" header_type="UInt32" compressor="vtkZLibDataCompressor">
  <PolyData>
    <Piece NumberOfPoints="24" NumberOfVerts="0" NumberOfLines="0" NumberOfStrips="0" NumberOfPolys="14">
      <PointData Scalars="spokeLength" Vectors="spokeDirection">
        <DataArray type="Float64" Name="spokeDirection" NumberOfComponents="3" format="ascii" RangeMin="1" RangeMax="1">
          0.026825660142751295 0.9452261963648291 -0.32531188368023567 -0.4636575646186532 0.45040323815324895 -0.7629931754825644
          -0.38067616626712597 0.7212464669156742 -0.5786961123057774 -0.19730289974126305 0.7155916933593819 -0.6700746929624648
          -0.6551190270233062 0.5208183080192703 -0.5473274618215144 -0.7735417584902009 0.5295574805258602 -0.34814080871249664
          -0.5154809511134824 0.6545005950023431 -0.5530898301186873 -0.49665999223730595 0.6563258744575026 -0.5679482358705182
          -0.14741984092304314 0.9847924417702189 0.09193061043240627 -0.19371203189639621 0.8944492782596212 -0.4030336677244378
          -0.38760965093125316 0.585343910912302 -0.7121314938007188 -0.044421042893523374 0.6583271304491595 -0.7514200957273016
          0.006030249825987121 0.7234296814268337 -0.6903717347326048 -0.5325276458722119 0.7258277452051171 -0.4354174900853845
          -0.5498799804969768 0.5782833994539228 -0.6026776227508859 -0.09007153306569336 0.8450750611472493 -0.5270059392057823
          -0.2049716606288946 0.9086276723522263 -0.3638438832450103 0.046328878231588516 0.913692801043044 -0.40375623879256545
          0.2732855212100931 0.7407193195631122 -0.6137181059109207 0.29335927671528766 0.5665838571677073 -0.7700149787907028
          0.333682385254702 0.3472224528336715 -0.8764089422289696 0.07410558904922634 0.5577025679042993 -0.8267261985836771
          0.3490960740335535 0.4188181699362091 -0.8382859128159346 0.47957944138404873 0.6072823557338285 -0.6334127404908553
          <InformationKey name="L2_NORM_RANGE" location="vtkDataArray" length="2">
            <Value index="0">
              1
            </Value>
            <Value index="1">
              1
            </Value>
          </InformationKey>
        </DataArray>
        <DataArray type="Float64" Name="spokeLength" format="ascii" RangeMin="0.02980642087138858" RangeMax="0.12415744947031387">
          0.04921988771051684 0.059978485621011234 0.02980642087138858 0.04417121360390653 0.04253833979558616 0.10754950132535136
          0.10983092584835145 0.09481713738561919 0.044895677213214864 0.08781045439027342 0.09240514901353139 0.08350528941642853
          0.08334949425438187 0.10700188123954328 0.11511734969392587 0.06712530907748883 0.04921792025153577 0.10556582029178244
          0.07803550016656774 0.08624829626558872 0.0848638076137571 0.10220637133881773 0.12415744947031387 0.09042889134039306
        </DataArray>
      </PointData>
      <CellData>
      </CellData>
      <Points>
        <DataArray type="Float64" Name="Points" NumberOfComponents="3" format="ascii" RangeMin="0.3452224672105086" RangeMax="1.3095926427808016">
          0.19097216286806062 0.8905324455099932 0.9010667042898969 0.24198493395413476 0.8568729626570393 0.8070950100233282
          0.2623772169062911 0.7557267022400728 0.6977331187657174 0.27250357506932205 0.6479621932093654 0.5959454639825243
          0.2612651998832667 0.5394487741882948 0.48521332449903176 0.25443633539302946 0.3947427720026543 0.4128972252998399
          0.19024769852394716 0.2509283356344016 0.3947245641174707 0.19172867277063152 0.18166691019660872 0.2741347007133304
          0.23828789139465326 0.8812671382471761 0.9247974000722549 0.3421811343683788 0.859845999471013 0.8280468462728601
          0.39001164595657345 0.7724404358420902 0.7074419491998356 0.404924769941969 0.6737964635768119 0.6136114224788106
          0.4226891932947752 0.5596162365714071 0.5321333543753491 0.40671392628355413 0.44032220759148627 0.4161730018952601
          0.332773122309658 0.29488750257852353 0.31213356477011517 0.2829796940417919 0.1167865924532778 0.159567968120411
          0.34848381673504625 0.8985296434266229 0.8866997233466383 0.4439083236181429 0.8826168789016724 0.796411683743668
          0.5188990218601968 0.8075077503959008 0.7069640672421554 0.5655338890502042 0.7109876414352642 0.6098908625756336
          0.5669595588805605 0.5686621556627722 0.5246288608591871 0.5610952570715039 0.39636180004502036 0.43385468682472644
          0.5051932637603275 0.25068577431676786 0.3258093739685933 0.40669764647670514 0.18278688603305296 0.22310288151140398
          <InformationKey name="L2_NORM_RANGE" location="vtkDataArray" length="2">
            <Value index="0">
              0.34522246721
            </Value>
            <Value index="1">
              1.3095926428
            </Value>
          </InformationKey>
        </DataArray>
      </Points>
      <Verts>
        <DataArray type="Int64" Name="connectivity" format="ascii" RangeMin="0" RangeMax="17">
        </DataArray>
        <DataArray type="Int64" Name="offsets" format="ascii" RangeMin="19" RangeMax="19">
        </DataArray>
      </Verts>
      <Lines>
        <DataArray type="Int64" Name="connectivity" format="ascii" RangeMin="0" RangeMax="17">
        </DataArray>
        <DataArray type="Int64" Name="offsets" format="ascii" RangeMin="19" RangeMax="19">
        </DataArray>
      </Lines>
      <Strips>
        <DataArray type="Int64" Name="connectivity" format="ascii" RangeMin="0" RangeMax="17">
        </DataArray>
        <DataArray type="Int64" Name="offsets" format="ascii" RangeMin="19" RangeMax="19">
        </DataArray>
      </Strips>
      <Polys>
        <DataArray type="Int64" Name="connectivity" format="ascii" RangeMin="0" RangeMax="17">
          0 8 9 1 1 9
          10 2 2 10 11 3
          3 11 12 4 4 12
          13 5 5 13 14 6
          6 14 15 7 8 16
          17 9 9 17 18 10
          10 18 19 11 11 19
          20 12 12 20 21 13
          13 21 22 14 14 22
          23 15
        </DataArray>
        <DataArray type="Int64" Name="offsets" format="ascii" RangeMin="19" RangeMax="19">
          4 8 12 16 20 24
          28 32 36 40 44 48
          52 56
        </DataArray>
      </Polys>
    </Piece>
  </PolyData>
</VTKFile>
